
     Program PWSCF v.6.5 starts on 27May2020 at  6:32:55 

     This program is part of the open-source Quantum ESPRESSO suite
     for quantum simulation of materials; please cite
         "P. Giannozzi et al., J. Phys.:Condens. Matter 21 395502 (2009);
         "P. Giannozzi et al., J. Phys.:Condens. Matter 29 465901 (2017);
          URL http://www.quantum-espresso.org", 
     in publications or presentations arising from this work. More details at
     http://www.quantum-espresso.org/quote

     Parallel version (MPI), running on    44 processors

     MPI processes distributed on     1 nodes
     R & G space division:  proc/nbgrp/npool/nimage =      44
     Fft bands division:     nmany     =       1
     Waiting for input...
     Reading input from standard input

     Current dimensions of program PWSCF are:
     Max number of different atomic species (ntypx) = 10
     Max number of k-points (npk) =  40000
     Max angular momentum in pseudopotentials (lmaxx) =  3
     file C.pbe-n-kjpaw_psl.1.0.0.UPF: wavefunction(s)  2S 2P renormalized

     Subspace diagonalization in iterative solution of the eigenvalue problem:
     one sub-group per band group will be used
     scalapack distributed-memory algorithm (size of sub-group:  6*  6 procs)


     Parallelization info
     --------------------
     sticks:   dense  smooth     PW     G-vecs:    dense   smooth      PW
     Min        1940     970    248               420978   148822   19316
     Max        1941     971    249               420983   148827   19323
     Sum       85375   42685  10939             18523159  6548247  850107



     bravais-lattice index     =            0
     lattice parameter (alat)  =      50.7989  a.u.
     unit-cell volume          =  104303.1644 (a.u.)^3
     number of atoms/cell      =          321
     number of atomic types    =            4
     number of electrons       =      1203.00
     number of Kohn-Sham states=          722
     kinetic-energy cutoff     =      60.0000  Ry
     charge density cutoff     =     480.0000  Ry
     convergence threshold     =      6.4E-08
     mixing beta               =       0.4000
     number of iterations used =            8  plain     mixing
     Exchange-correlation= PBE
                           (   1   4   3   4   0   0   0)

     celldm(1)=  50.798861  celldm(2)=   0.000000  celldm(3)=   0.000000
     celldm(4)=   0.000000  celldm(5)=   0.000000  celldm(6)=   0.000000

     crystal axes: (cart. coord. in units of alat)
               a(1) = (   1.000000   0.000000   0.000000 )  
               a(2) = (  -0.500000   0.866025   0.000000 )  
               a(3) = (   0.000000   0.000000   0.918766 )  

     reciprocal axes: (cart. coord. in units 2 pi/alat)
               b(1) = (  1.000000  0.577350 -0.000000 )  
               b(2) = (  0.000000  1.154701  0.000000 )  
               b(3) = (  0.000000 -0.000000  1.088416 )  


     PseudoPot. # 1 for Br read from file:
     ./pseudo/br_pbe_v1.4.uspp.F.UPF
     MD5 check sum: d3ffb7b29f6225aa16fe06858fb2a80b
     Pseudo is Ultrasoft + core correction, Zval =  7.0
     Generated by new atomic code, or converted to UPF format
     Using radial grid of  879 points,  6 beta functions with: 
                l(1) =   0
                l(2) =   0
                l(3) =   1
                l(4) =   1
                l(5) =   2
                l(6) =   2
     Q(r) pseudized with  8 coefficients,  rinner =    1.100   1.100   1.100
                                                       1.100   1.100

     PseudoPot. # 2 for C  read from file:
     ./pseudo/C.pbe-n-kjpaw_psl.1.0.0.UPF
     MD5 check sum: 5d2aebdfa2cae82b50a7e79e9516da0f
     Pseudo is Projector augmented-wave + core cor, Zval =  4.0
     Generated using "atomic" code by A. Dal Corso v.5.1
     Shape of augmentation charge: PSQ
     Using radial grid of 1073 points,  4 beta functions with: 
                l(1) =   0
                l(2) =   0
                l(3) =   1
                l(4) =   1
     Q(r) pseudized with 0 coefficients 


     PseudoPot. # 3 for H  read from file:
     ./pseudo/H.pbe-rrkjus_psl.1.0.0.UPF
     MD5 check sum: f52b6d4d1c606e5624b1dc7b2218f220
     Pseudo is Ultrasoft, Zval =  1.0
     Generated using "atomic" code by A. Dal Corso v.5.1
     Using radial grid of  929 points,  2 beta functions with: 
                l(1) =   0
                l(2) =   0
     Q(r) pseudized with 0 coefficients 


     PseudoPot. # 4 for Si read from file:
     ./pseudo/Si.pbe-n-rrkjus_psl.1.0.0.UPF
     MD5 check sum: 0b0bb1205258b0d07b9f9672cf965d36
     Pseudo is Ultrasoft + core correction, Zval =  4.0
     Generated using "atomic" code by A. Dal Corso v.5.1
     Using radial grid of 1141 points,  6 beta functions with: 
                l(1) =   0
                l(2) =   0
                l(3) =   1
                l(4) =   1
                l(5) =   2
                l(6) =   2
     Q(r) pseudized with 0 coefficients 


     atomic species   valence    mass     pseudopotential
        Br             7.00    79.90400     Br( 1.00)
        C              4.00    12.01100     C ( 1.00)
        H              1.00     1.00794     H ( 1.00)
        Si             4.00    28.08550     Si( 1.00)

     No symmetry found


                                    s                        frac. trans.

      isym =  1     identity                                     

 cryst.   s( 1) = (     1          0          0      )
                  (     0          1          0      )
                  (     0          0          1      )

 cart.    s( 1) = (  1.0000000  0.0000000  0.0000000 )
                  (  0.0000000  1.0000000  0.0000000 )
                  (  0.0000000  0.0000000  1.0000000 )


   Cartesian axes

     site n.     atom                  positions (alat units)
         1           Si  tau(   1) = (   0.4272850   0.6612191   0.0000000  )
         2           Si  tau(   2) = (  -0.0000050   0.6568717   0.0019386  )
         3           Si  tau(   3) = (  -0.0737750   0.7844371   0.0017916  )
         4           Si  tau(   4) = (  -0.2120350   0.7846970   0.0019202  )
         5           Si  tau(   5) = (  -0.3590150   0.7846277   0.0027747  )
         6           Si  tau(   6) = (   0.4999950   0.5327875   0.0031606  )
         7           Si  tau(   7) = (   0.4315300   0.4143238   0.0033811  )
         8           Si  tau(   8) = (   0.2851032   0.4127474   0.0066787  )
         9           Si  tau(   9) = (   0.5000050   0.2886722   0.0090131  )
        10           Si  tau(  10) = (   0.5000000   0.7869573   0.0078371  )
        11           Si  tau(  11) = (   0.3562100   0.5372129   0.0096838  )
        12           Si  tau(  12) = (  -0.1432250   0.6600412   0.0095460  )
        13           Si  tau(  13) = (   0.3576400   0.3708667   0.0192206  )
        14           Si  tau(  14) = (  -0.2853650   0.7421058   0.0205712  )
        15           Si  tau(  15) = (   0.0000050   0.7419846   0.0192849  )
        16           Si  tau(  16) = (  -0.0711950   0.6184547   0.0376051  )
        17           Si  tau(  17) = (   0.5000050   0.6182469   0.0197810  )
        18           Si  tau(  18) = (   0.5710500   0.7417161   0.0348488  )
        19           Si  tau(  19) = (   0.2842850   0.4932274   0.0357124  )
        20           Si  tau(  20) = (   0.0000000   0.0000000   0.0454973  )
        21           Si  tau(  21) = (   0.3582850   0.6214858   0.0361994  )
        22           Si  tau(  22) = (   0.4283500   0.2473022   0.0390476  )
        23           Si  tau(  23) = (   0.4279600   0.4954531   0.0386525  )
        24           Si  tau(  24) = (  -0.2153650   0.6181256   0.0380645  )
        25           Si  tau(  25) = (  -0.0737750   0.6199443   0.1282965  )
        26           Si  tau(  26) = (   0.4224550   0.2438987   0.1289304  )
        27           Si  tau(  27) = (  -0.2851700   0.7419932   0.1077621  )
        28           Si  tau(  28) = (   0.3578050   0.3707714   0.1048496  )
        29           Si  tau(  29) = (   0.5000000   0.6181343   0.1056948  )
        30           Si  tau(  30) = (  -0.4166250   0.7228281   0.1214241  )
        31           Si  tau(  31) = (   0.0000000   0.7414909   0.1066320  )
        32           Si  tau(  32) = (   0.4306250   0.4945438   0.1284894  )
        33           Si  tau(  33) = (   0.2715050   0.4724429   0.1217457  )
        34           Si  tau(  34) = (  -0.3711950   0.6440717   0.1219662  )
        35           Si  tau(  35) = (  -0.2174100   0.6178225   0.1281862  )
        36           Si  tau(  36) = (   0.4253800   0.3317570   0.1471679  )
        37           Si  tau(  37) = (  -0.1458200   0.6615395   0.1556482  )
        38           Si  tau(  38) = (   0.4308750   0.5828957   0.1488125  )
        39           Si  tau(  39) = (   0.0000050   0.6650642   0.1507787  )
        40           Si  tau(  40) = (   0.5000000   0.4566552   0.1716347  )
        41           Si  tau(  41) = (  -0.2101500   0.5305272   0.1517618  )
        42           Si  tau(  42) = (   0.3545500   0.4486704   0.1483072  )
        43           Si  tau(  43) = (   0.5000000   0.6959207   0.1493546  )
        44           Si  tau(  44) = (  -0.2899850   0.6656704   0.1525703  )
        45           Si  tau(  45) = (  -0.3519650   0.7805573   0.1524233  )
        46           Si  tau(  46) = (   0.3577600   0.3707974   0.1964414  )
        47           Si  tau(  47) = (  -0.2858000   0.7423570   0.2040763  )
        48           Si  tau(  48) = (   0.5000050   0.6183334   0.1976817  )
        49           Si  tau(  49) = (  -0.1423550   0.4951673   0.2035894  )
        50           Si  tau(  50) = (   0.8589900   0.1653762   0.0000000  )
        51           Si  tau(  51) = (   0.0688600   0.5375939   0.0019386  )
        52           Si  tau(  52) = (   0.2162299   0.5376978   0.0017916  )
        53           Si  tau(  53) = (   0.2855850   0.6573046   0.0019202  )
        54           Si  tau(  54) = (   0.3590050   0.7846277   0.0027747  )
        55           Si  tau(  55) = (   0.7114000   0.1666233   0.0031606  )
        56           Si  tau(  56) = (   0.6430500   0.2851475   0.0033811  )
        57           Si  tau(  57) = (   0.7157485   0.4132415   0.0015310  )
        58           Si  tau(  58) = (   0.9315250   0.0395341   0.0078371  )
        59           Si  tau(  59) = (   0.7871350   0.2889320   0.0096838  )
        60           Si  tau(  60) = (   0.1432250   0.6600412   0.0095460  )
        61           Si  tau(  61) = (   0.6423600   0.3708667   0.0192206  )
        62           Si  tau(  62) = (   0.2853650   0.7421058   0.0205712  )
        63           Si  tau(  63) = (   0.1425850   0.4950287   0.0192849  )
        64           Si  tau(  64) = (   0.0712050   0.6184547   0.0376051  )
        65           Si  tau(  65) = (   0.7854250   0.1238849   0.0197810  )
        66           Si  tau(  66) = (   0.8568200   0.0006235   0.0348488  )
        67           Si  tau(  67) = (  -0.2149950   0.3732136   0.0357124  )
        68           Si  tau(  68) = (  -0.1409200   0.2449986   0.0361994  )
        69           Si  tau(  69) = (   0.5000050   0.3714123   0.0390476  )
        70           Si  tau(  70) = (   0.7150950   0.2476746   0.0386525  )
        71           Si  tau(  71) = (   0.1429950   0.7434741   0.0380645  )
        72           Si  tau(  72) = (   0.0737750   0.6199443   0.1282965  )
        73           Si  tau(  73) = (   0.5000050   0.3782193   0.1289304  )
        74           Si  tau(  74) = (   0.2851800   0.7419932   0.1077621  )
        75           Si  tau(  75) = (   0.6422050   0.3707714   0.1048496  )
        76           Si  tau(  76) = (   0.7853200   0.1239456   0.1056948  )
        77           Si  tau(  77) = (   0.3343000   0.8654192   0.1214241  )
        78           Si  tau(  78) = (   0.1421500   0.4952799   0.1066320  )
        79           Si  tau(  79) = (   0.7129750   0.2458213   0.1284894  )
        80           Si  tau(  80) = (  -0.2266050   0.3946738   0.1217457  )
        81           Si  tau(  81) = (   0.2433799   0.8654538   0.1219662  )
        82           Si  tau(  82) = (   0.1437549   0.7453967   0.1281862  )
        83           Si  tau(  83) = (   0.5746200   0.3317570   0.1471679  )
        84           Si  tau(  84) = (   0.1458200   0.6615395   0.1556482  )
        85           Si  tau(  85) = (   0.7893650   0.2014288   0.1488125  )
        86           Si  tau(  86) = (   0.0759700   0.5334890   0.1507787  )
        87           Si  tau(  87) = (   0.6454750   0.2046851   0.1716347  )
        88           Si  tau(  88) = (   0.0645250   0.7827570   0.1517618  )
        89           Si  tau(  89) = (   0.7112850   0.3346409   0.1483072  )
        90           Si  tau(  90) = (   0.8526850   0.0850524   0.1493546  )
        91           Si  tau(  91) = (   0.2214800   0.7843246   0.1525703  )
        92           Si  tau(  92) = (   0.3519750   0.7805573   0.1524233  )
        93           Si  tau(  93) = (   0.6422400   0.3707974   0.1964414  )
        94           Si  tau(  94) = (   0.2858000   0.7423570   0.2040763  )
        95           Si  tau(  95) = (   0.7855000   0.1238416   0.1976817  )
        96           Si  tau(  96) = (  -0.0000050   0.7417247   0.2035894  )
        97           Si  tau(  97) = (   0.2137250   0.0394301   0.0000000  )
        98           Si  tau(  98) = (  -0.0688700   0.5375939   0.0019386  )
        99           Si  tau(  99) = (  -0.1424550   0.4099158   0.0017916  )
       100           Si  tau( 100) = (  -0.0735500   0.2900492   0.0019202  )
       101           Si  tau( 101) = (  -0.0000050   0.1628041   0.0027747  )
       102           Si  tau( 102) = (   0.2885900   0.1666233   0.0031606  )
       103           Si  tau( 103) = (   0.4254200   0.1665540   0.0033811  )
       104           Si  tau( 104) = (   0.4999920   0.0395748   0.0017399  )
       105           Si  tau( 105) = (   0.0684750   0.0395341   0.0078371  )
       106           Si  tau( 106) = (   0.3566550   0.0398805   0.0096838  )
       107           Si  tau( 107) = (   0.0000000   0.4119683   0.0095460  )
       108           Si  tau( 108) = (   0.5000000   0.1242920   0.0192206  )
       109           Si  tau( 109) = (   0.0000000   0.2478391   0.0205712  )
       110           Si  tau( 110) = (  -0.1425750   0.4950287   0.0192849  )
       111           Si  tau( 111) = (   0.0000050   0.4951327   0.0376051  )
       112           Si  tau( 112) = (   0.2145850   0.1238849   0.0197810  )
       113           Si  tau( 113) = (   0.0721300   0.1236857   0.0348488  )
       114           Si  tau( 114) = (  -0.0692900   0.8656097   0.0357124  )
       115           Si  tau( 115) = (  -0.2173650   0.8655664   0.0361994  )
       116           Si  tau( 116) = (   0.5716600   0.2473022   0.0390476  )
       117           Si  tau( 117) = (   0.3569450   0.1228977   0.0386525  )
       118           Si  tau( 118) = (   0.0723700   0.3704510   0.0380645  )
       119           Si  tau( 119) = (  -0.0000000   0.4921622   0.1282965  )
       120           Si  tau( 120) = (   0.5775550   0.2438987   0.1289304  )
       121           Si  tau( 121) = (   0.0000050   0.2480557   0.1077621  )
       122           Si  tau( 122) = (   0.5000050   0.1244738   0.1048496  )
       123           Si  tau( 123) = (   0.2146800   0.1239456   0.1056948  )
       124           Si  tau( 124) = (   0.0823250   0.1438035   0.1214241  )
       125           Si  tau( 125) = (  -0.1421500   0.4952799   0.1066320  )
       126           Si  tau( 126) = (   0.3564000   0.1256603   0.1284894  )
       127           Si  tau( 127) = (  -0.0449000   0.8649342   0.1217457  )
       128           Si  tau( 128) = (   0.1278150   0.2225252   0.1219662  )
       129           Si  tau( 129) = (   0.0736550   0.3688315   0.1281862  )
       130           Si  tau( 130) = (   0.5000000   0.2025114   0.1471679  )
       131           Si  tau( 131) = (   0.0000000   0.4089718   0.1556482  )
       132           Si  tau( 132) = (   0.2797600   0.0817008   0.1488125  )
       133           Si  tau( 133) = (  -0.0759600   0.5334890   0.1507787  )
       134           Si  tau( 134) = (   0.3545250   0.2046851   0.1716347  )
       135           Si  tau( 135) = (   0.1456250   0.4187666   0.1517618  )
       136           Si  tau( 136) = (   0.4341650   0.0827141   0.1483072  )
       137           Si  tau( 137) = (   0.1473150   0.0850524   0.1493546  )
       138           Si  tau( 138) = (   0.0685050   0.2820558   0.1525703  )
       139           Si  tau( 139) = (   0.0000050   0.1709274   0.1524233  )
       140           Si  tau( 140) = (   0.5000000   0.1244305   0.1964414  )
       141           Si  tau( 141) = (   0.0000000   0.2473369   0.2040763  )
       142           Si  tau( 142) = (   0.2145100   0.1238416   0.1976817  )
       143           Si  tau( 143) = (   0.1423450   0.4951673   0.2035894  )
       144           Si  tau( 144) = (   0.5727150   0.6612191   0.0000000  )
       145           Si  tau( 145) = (   0.0737750   0.7844371   0.0017916  )
       146           Si  tau( 146) = (   0.2120350   0.7846970   0.0019202  )
       147           Si  tau( 147) = (   0.5684700   0.4143238   0.0033811  )
       148           Si  tau( 148) = (   0.6437900   0.5372129   0.0096838  )
       149           Si  tau( 149) = (   0.4289500   0.7417161   0.0348488  )
       150           Si  tau( 150) = (  -0.2842850   0.4932274   0.0357124  )
       151           Si  tau( 151) = (  -0.3582850   0.6214858   0.0361994  )
       152           Si  tau( 152) = (   0.5720400   0.4954531   0.0386525  )
       153           Si  tau( 153) = (   0.2153650   0.6181256   0.0380645  )
       154           Si  tau( 154) = (   0.4166250   0.7228281   0.1214241  )
       155           Si  tau( 155) = (   0.5693750   0.4945438   0.1284894  )
       156           Si  tau( 156) = (  -0.2715050   0.4724429   0.1217457  )
       157           Si  tau( 157) = (   0.3711950   0.6440717   0.1219662  )
       158           Si  tau( 158) = (   0.2174099   0.6178225   0.1281862  )
       159           Si  tau( 159) = (   0.5691250   0.5828957   0.1488125  )
       160           Si  tau( 160) = (   0.2101500   0.5305272   0.1517618  )
       161           Si  tau( 161) = (   0.6454500   0.4486704   0.1483072  )
       162           Si  tau( 162) = (   0.2899850   0.6656704   0.1525703  )
       163           Si  tau( 163) = (   0.1410100   0.1653762   0.0000000  )
       164           Si  tau( 164) = (  -0.2162300   0.5376978   0.0017916  )
       165           Si  tau( 165) = (  -0.2855850   0.6573046   0.0019202  )
       166           Si  tau( 166) = (   0.3569500   0.2851475   0.0033811  )
       167           Si  tau( 167) = (   0.2128650   0.2889320   0.0096838  )
       168           Si  tau( 168) = (   0.1431800   0.0006235   0.0348488  )
       169           Si  tau( 169) = (   0.2149950   0.3732136   0.0357124  )
       170           Si  tau( 170) = (   0.1409200   0.2449986   0.0361994  )
       171           Si  tau( 171) = (   0.2849050   0.2476746   0.0386525  )
       172           Si  tau( 172) = (  -0.1429950   0.7434741   0.0380645  )
       173           Si  tau( 173) = (  -0.3343000   0.8654192   0.1214241  )
       174           Si  tau( 174) = (   0.2870250   0.2458213   0.1284894  )
       175           Si  tau( 175) = (   0.2266050   0.3946738   0.1217457  )
       176           Si  tau( 176) = (  -0.2433800   0.8654538   0.1219662  )
       177           Si  tau( 177) = (  -0.1437550   0.7453967   0.1281862  )
       178           Si  tau( 178) = (   0.2106350   0.2014288   0.1488125  )
       179           Si  tau( 179) = (  -0.0645250   0.7827570   0.1517618  )
       180           Si  tau( 180) = (   0.2887150   0.3346409   0.1483072  )
       181           Si  tau( 181) = (  -0.2214800   0.7843246   0.1525703  )
       182           Si  tau( 182) = (   0.7862750   0.0394301   0.0000000  )
       183           Si  tau( 183) = (   0.1424550   0.4099158   0.0017916  )
       184           Si  tau( 184) = (   0.0735500   0.2900492   0.0019202  )
       185           Si  tau( 185) = (   0.5745800   0.1665540   0.0033811  )
       186           Si  tau( 186) = (   0.6433450   0.0398805   0.0096838  )
       187           Si  tau( 187) = (   0.9278700   0.1236857   0.0348488  )
       188           Si  tau( 188) = (   0.0692900   0.8656097   0.0357124  )
       189           Si  tau( 189) = (   0.2173651   0.8655664   0.0361994  )
       190           Si  tau( 190) = (   0.6430550   0.1228977   0.0386525  )
       191           Si  tau( 191) = (  -0.0723700   0.3704510   0.0380645  )
       192           Si  tau( 192) = (  -0.0823250   0.1438035   0.1214241  )
       193           Si  tau( 193) = (   0.6436000   0.1256603   0.1284894  )
       194           Si  tau( 194) = (   0.0449000   0.8649342   0.1217457  )
       195           Si  tau( 195) = (  -0.1278150   0.2225252   0.1219662  )
       196           Si  tau( 196) = (  -0.0736550   0.3688315   0.1281862  )
       197           Si  tau( 197) = (   0.7202400   0.0817008   0.1488125  )
       198           Si  tau( 198) = (  -0.1456250   0.4187666   0.1517618  )
       199           Si  tau( 199) = (   0.5658350   0.0827141   0.1483072  )
       200           Si  tau( 200) = (  -0.0685050   0.2820558   0.1525703  )
       201           Br  tau( 201) = (  -0.2885187   0.7419158   0.2884209  )
       202           Br  tau( 202) = (   0.0001384   0.7443252   0.2879080  )
       203           Br  tau( 203) = (  -0.1434028   0.4910540   0.2880526  )
       204           Br  tau( 204) = (   0.1429631   0.4933151   0.2877711  )
       205           Br  tau( 205) = (   0.3592507   0.3709628   0.2815368  )
       206           Br  tau( 206) = (   0.0000000   0.0000000   0.1340296  )
       207           Br  tau( 207) = (   0.2080296   0.1234932   0.2822851  )
       208           C   tau( 208) = (   0.5973152   0.4124112   0.3061448  )
       209           C   tau( 209) = (   0.5976041   0.3593672   0.3061730  )
       210           C   tau( 210) = (   0.5499071   0.4384049   0.3050145  )
       211           C   tau( 211) = (   0.5505775   0.3327525   0.3046354  )
       212           C   tau( 212) = (   0.6435943   0.4393923   0.3067272  )
       213           C   tau( 213) = (   0.6442425   0.3328769   0.3070637  )
       214           C   tau( 214) = (   0.5044994   0.4106197   0.3034291  )
       215           C   tau( 215) = (   0.5048333   0.3599126   0.3032821  )
       216           C   tau( 216) = (   0.6887577   0.4121622   0.3075710  )
       217           C   tau( 217) = (   0.6890374   0.3608546   0.3078432  )
       218           C   tau( 218) = (   0.5529419   0.4898886   0.3052017  )
       219           C   tau( 219) = (   0.5542131   0.2812829   0.3042240  )
       220           C   tau( 220) = (   0.6444781   0.4927869   0.3062069  )
       221           C   tau( 221) = (   0.6457153   0.2795081   0.3061604  )
       222           C   tau( 222) = (   0.5994186   0.5162161   0.3057646  )
       223           C   tau( 223) = (   0.6009756   0.2554316   0.3047896  )
       224           C   tau( 224) = (   0.4838180   0.1554645   0.3059450  )
       225           C   tau( 225) = (   0.4386014   0.1276701   0.3057713  )
       226           C   tau( 226) = (   0.4813959   0.2093327   0.3048123  )
       227           C   tau( 227) = (   0.3917097   0.1529052   0.3043754  )
       228           C   tau( 228) = (   0.5307141   0.1294184   0.3064095  )
       229           C   tau( 229) = (   0.4395990   0.0743883   0.3057820  )
       230           C   tau( 230) = (   0.4339043   0.2333612   0.3036963  )
       231           C   tau( 231) = (   0.3909163   0.2062595   0.3033868  )
       232           C   tau( 232) = (   0.5302100   0.0762371   0.3067371  )
       233           C   tau( 233) = (   0.4866237   0.0496983   0.3063530  )
       234           C   tau( 234) = (   0.5273114   0.2332654   0.3042434  )
       235           C   tau( 235) = (   0.3476803   0.1249202   0.3032292  )
       236           C   tau( 236) = (   0.5767190   0.1560346   0.3056791  )
       237           C   tau( 237) = (   0.3943338   0.0478797   0.3044570  )
       238           C   tau( 238) = (   0.5736451   0.2069342   0.3046733  )
       239           C   tau( 239) = (   0.3490087   0.0729307   0.3032109  )
       240           C   tau( 240) = (   0.8196895   0.0328640   0.3061654  )
       241           C   tau( 241) = (   0.3197141   0.8459683   0.3058549  )
       242           C   tau( 242) = (   0.7733067   0.0595448   0.3068087  )
       243           C   tau( 243) = (   0.2732851   0.8194042   0.3063785  )
       244           C   tau( 244) = (   0.8669267   0.0591670   0.3061032  )
       245           C   tau( 245) = (   0.3670214   0.8196657   0.3054086  )
       246           C   tau( 246) = (   0.7283400   0.0321104   0.3062486  )
       247           C   tau( 247) = (   0.2283144   0.8468189   0.3060775  )
       248           C   tau( 248) = (   0.9124682   0.0317871   0.3042523  )
       249           C   tau( 249) = (   0.4125144   0.8471168   0.3039180  )
       250           C   tau( 250) = (   0.7723947   0.1130844   0.3069448  )
       251           C   tau( 251) = (   0.2723023   0.7658911   0.3065467  )
       252           C   tau( 252) = (   0.8638957   0.1105919   0.3078190  )
       253           C   tau( 253) = (   0.3640748   0.7681925   0.3065636  )
       254           C   tau( 254) = (   0.8175692   0.1369891   0.3080341  )
       255           C   tau( 255) = (   0.3176149   0.7419659   0.3071217  )
       256           C   tau( 256) = (   0.4356050   0.6427287   0.3073267  )
       257           C   tau( 257) = (   0.4810695   0.6152862   0.3077223  )
       258           C   tau( 258) = (   0.3888459   0.6165705   0.3060785  )
       259           C   tau( 259) = (   0.4793924   0.5612753   0.3066459  )
       260           C   tau( 260) = (   0.4374184   0.6966436   0.3070810  )
       261           C   tau( 261) = (   0.5280144   0.6415191   0.3081343  )
       262           C   tau( 262) = (   0.3890627   0.5634920   0.3046446  )
       263           C   tau( 263) = (   0.4324334   0.5367648   0.3049248  )
       264           C   tau( 264) = (   0.4843969   0.7211711   0.3069857  )
       265           C   tau( 265) = (   0.5278327   0.6945562   0.3077090  )
       266           C   tau( 266) = (   0.3426759   0.6427044   0.3060386  )
       267           C   tau( 267) = (   0.5255990   0.5376883   0.3059642  )
       268           C   tau( 268) = (   0.3912642   0.7203567   0.3069368  )
       269           C   tau( 269) = (   0.5741968   0.6153329   0.3076345  )
       270           C   tau( 270) = (   0.3453355   0.6936758   0.3070440  )
       271           C   tau( 271) = (   0.5715858   0.5644087   0.3065140  )
       272           C   tau( 272) = (  -0.0180075   0.2619570   0.3103529  )
       273           C   tau( 273) = (  -0.0638256   0.2351860   0.3096181  )
       274           C   tau( 274) = (  -0.0178434   0.3152724   0.3077042  )
       275           C   tau( 275) = (  -0.1099911   0.2620169   0.3071514  )
       276           C   tau( 276) = (   0.0286415   0.2356537   0.3118395  )
       277           C   tau( 277) = (  -0.0623708   0.1813375   0.3096284  )
       278           C   tau( 278) = (  -0.0643337   0.3407812   0.3051115  )
       279           C   tau( 279) = (  -0.1084125   0.3150669   0.3049586  )
       280           C   tau( 280) = (   0.0282693   0.1822911   0.3120412  )
       281           C   tau( 281) = (  -0.0153453   0.1563358   0.3105591  )
       282           C   tau( 282) = (   0.0281008   0.3405808   0.3060841  )
       283           C   tau( 283) = (   0.8434797   0.2362430   0.3065764  )
       284           C   tau( 284) = (   0.0733218   0.2627128   0.3104882  )
       285           C   tau( 285) = (   0.8914063   0.1581981   0.3084823  )
       286           C   tau( 286) = (   0.0729272   0.3146258   0.3074337  )
       287           C   tau( 287) = (   0.8455501   0.1852575   0.3078479  )
       288           H   tau( 288) = (   0.7238050   0.4327830   0.3075412  )
       289           H   tau( 289) = (   0.7243319   0.3406781   0.3079710  )
       290           H   tau( 290) = (   0.6801802   0.5121693   0.3065393  )
       291           H   tau( 291) = (   0.6816454   0.2605459   0.3064309  )
       292           H   tau( 292) = (   0.4691962   0.4305212   0.3021358  )
       293           H   tau( 293) = (   0.4697703   0.3395933   0.3017397  )
       294           H   tau( 294) = (   0.3120012   0.1443031   0.3020765  )
       295           H   tau( 295) = (   0.5659424   0.0568455   0.3066223  )
       296           H   tau( 296) = (   0.4872788   0.0090317   0.3059965  )
       297           H   tau( 297) = (   0.6117813   0.1355131   0.3057143  )
       298           H   tau( 298) = (   0.3954860   0.0072467   0.3043591  )
       299           H   tau( 299) = (   0.3141477   0.0520940   0.3021921  )
       300           H   tau( 300) = (   0.4322111   0.2738811   0.3026652  )
       301           H   tau( 301) = (   0.3548710   0.2250101   0.3023743  )
       302           H   tau( 302) = (   0.7366377   0.1323910   0.3071085  )
       303           H   tau( 303) = (   0.2366037   0.7465143   0.3077083  )
       304           H   tau( 304) = (   0.9474662   0.0521954   0.3030294  )
       305           H   tau( 305) = (   0.4475417   0.8267501   0.3025036  )
       306           H   tau( 306) = (   0.6931864   0.0525353   0.3059523  )
       307           H   tau( 307) = (   0.1931730   0.8263854   0.3057230  )
       308           H   tau( 308) = (   0.3078038   0.6219055   0.3051593  )
       309           H   tau( 309) = (   0.4854350   0.7616996   0.3062923  )
       310           H   tau( 310) = (   0.5636760   0.7137429   0.3073647  )
       311           H   tau( 311) = (   0.6090384   0.6362483   0.3076168  )
       312           H   tau( 312) = (   0.3532844   0.5442500   0.3032441  )
       313           H   tau( 313) = (   0.4313165   0.4962514   0.3035256  )
       314           H   tau( 314) = (   0.0280329   0.3811288   0.3033198  )
       315           H   tau( 315) = (   0.8088445   0.2574336   0.3050256  )
       316           H   tau( 316) = (   0.0639487   0.1628093   0.3121319  )
       317           H   tau( 317) = (  -0.0147910   0.1158014   0.3098072  )
       318           H   tau( 318) = (   0.1084995   0.2423417   0.3108205  )
       319           H   tau( 319) = (   0.1080128   0.3350023   0.3056837  )
       320           H   tau( 320) = (  -0.0642578   0.3813748   0.3028796  )
       321           H   tau( 321) = (  -0.1436393   0.3352688   0.3028324  )

   Crystallographic axes

     site n.     atom                  positions (cryst. coord.)
         1           Si  tau(   1) = (  0.8090400  0.7635100  0.0000000  )
         2           Si  tau(   2) = (  0.3792400  0.7584901  0.0021100  )
         3           Si  tau(   3) = (  0.3791200  0.9057899  0.0019500  )
         4           Si  tau(   4) = (  0.2410100  0.9060900  0.0020900  )
         5           Si  tau(   5) = (  0.0939900  0.9060100  0.0030200  )
         6           Si  tau(   6) = (  0.8076000  0.6152100  0.0034400  )
         7           Si  tau(   7) = (  0.6707400  0.4784200  0.0036800  )
         8           Si  tau(   8) = (  0.5234030  0.4765997  0.0072692  )
         9           Si  tau(   9) = (  0.6666700  0.3333300  0.0098100  )
        10           Si  tau(  10) = (  0.9543500  0.9087000  0.0085300  )
        11           Si  tau(  11) = (  0.6663700  0.6203200  0.0105400  )
        12           Si  tau(  12) = (  0.2378500  0.7621500  0.0103900  )
        13           Si  tau(  13) = (  0.5717600  0.4282400  0.0209200  )
        14           Si  tau(  14) = (  0.1430900  0.8569100  0.0223900  )
        15           Si  tau(  15) = (  0.4283900  0.8567700  0.0209900  )
        16           Si  tau(  16) = (  0.2858700  0.7141300  0.0409300  )
        17           Si  tau(  17) = (  0.8569500  0.7138900  0.0215300  )
        18           Si  tau(  18) = (  0.9992800  0.8564600  0.0379300  )
        19           Si  tau(  19) = (  0.5690500  0.5695300  0.0388700  )
        20           Si  tau(  20) = (  0.0000000  0.0000000  0.0495200  )
        21           Si  tau(  21) = (  0.7171001  0.7176300  0.0394000  )
        22           Si  tau(  22) = (  0.5711300  0.2855600  0.0425000  )
        23           Si  tau(  23) = (  0.7140100  0.5721000  0.0420700  )
        24           Si  tau(  24) = (  0.1415100  0.7137500  0.0414300  )
        25           Si  tau(  25) = (  0.2841500  0.7158500  0.1396400  )
        26           Si  tau(  26) = (  0.5632700  0.2816300  0.1403300  )
        27           Si  tau(  27) = (  0.1432200  0.8567800  0.1172900  )
        28           Si  tau(  28) = (  0.5718700  0.4281300  0.1141200  )
        29           Si  tau(  29) = (  0.8568800  0.7137600  0.1150400  )
        30           Si  tau(  30) = (  0.0007000  0.8346500  0.1321600  )
        31           Si  tau(  31) = (  0.4281000  0.8562000  0.1160600  )
        32           Si  tau(  32) = (  0.7161500  0.5710500  0.1398500  )
        33           Si  tau(  33) = (  0.5442700  0.5455300  0.1325100  )
        34           Si  tau(  34) = (  0.0006600  0.7437100  0.1327500  )
        35           Si  tau(  35) = (  0.1392900  0.7134000  0.1395200  )
        36           Si  tau(  36) = (  0.6169200  0.3830800  0.1601800  )
        37           Si  tau(  37) = (  0.2361200  0.7638800  0.1694100  )
        38           Si  tau(  38) = (  0.7674100  0.6730700  0.1619700  )
        39           Si  tau(  39) = (  0.3839800  0.7679500  0.1641100  )
        40           Si  tau(  40) = (  0.7636500  0.5273000  0.1868100  )
        41           Si  tau(  41) = (  0.0961500  0.6126000  0.1651800  )
        42           Si  tau(  42) = (  0.6135900  0.5180800  0.1614200  )
        43           Si  tau(  43) = (  0.9017900  0.8035800  0.1625600  )
        44           Si  tau(  44) = (  0.0943400  0.7686500  0.1660600  )
        45           Si  tau(  45) = (  0.0986900  0.9013100  0.1659000  )
        46           Si  tau(  46) = (  0.5718400  0.4281600  0.2138100  )
        47           Si  tau(  47) = (  0.1428000  0.8572000  0.2221200  )
        48           Si  tau(  48) = (  0.8570000  0.7139900  0.2151600  )
        49           Si  tau(  49) = (  0.1435300  0.5717700  0.2215900  )
        50           Si  tau(  50) = (  0.9544700  0.1909600  0.0000000  )
        51           Si  tau(  51) = (  0.3792400  0.6207600  0.0021100  )
        52           Si  tau(  52) = (  0.5266699  0.6208800  0.0019500  )
        53           Si  tau(  53) = (  0.6650800  0.7589900  0.0020900  )
        54           Si  tau(  54) = (  0.8120100  0.9060100  0.0030200  )
        55           Si  tau(  55) = (  0.8076000  0.1924000  0.0034400  )
        56           Si  tau(  56) = (  0.8076800  0.3292600  0.0036800  )
        57           Si  tau(  57) = (  0.9543336  0.4771702  0.0016663  )
        58           Si  tau(  58) = (  0.9543500  0.0456500  0.0085300  )
        59           Si  tau(  59) = (  0.9539500  0.3336300  0.0105400  )
        60           Si  tau(  60) = (  0.5243000  0.7621500  0.0103900  )
        61           Si  tau(  61) = (  0.8564800  0.4282400  0.0209200  )
        62           Si  tau(  62) = (  0.7138200  0.8569100  0.0223900  )
        63           Si  tau(  63) = (  0.4283900  0.5716099  0.0209900  )
        64           Si  tau(  64) = (  0.4282700  0.7141300  0.0409300  )
        65           Si  tau(  65) = (  0.8569500  0.1430500  0.0215300  )
        66           Si  tau(  66) = (  0.8571800  0.0007200  0.0379300  )
        67           Si  tau(  67) = (  0.0004800  0.4309500  0.0388700  )
        68           Si  tau(  68) = (  0.0005300  0.2829000  0.0394000  )
        69           Si  tau(  69) = (  0.7144400  0.4288700  0.0425000  )
        70           Si  tau(  70) = (  0.8580900  0.2859900  0.0420700  )
        71           Si  tau(  71) = (  0.5722400  0.8584899  0.0414300  )
        72           Si  tau(  72) = (  0.4317000  0.7158500  0.1396400  )
        73           Si  tau(  73) = (  0.7183700  0.4367300  0.1403300  )
        74           Si  tau(  74) = (  0.7135700  0.8567800  0.1172900  )
        75           Si  tau(  75) = (  0.8562700  0.4281300  0.1141200  )
        76           Si  tau(  76) = (  0.8568800  0.1431200  0.1150400  )
        77           Si  tau(  77) = (  0.8339500  0.9993000  0.1321600  )
        78           Si  tau(  78) = (  0.4281000  0.5719000  0.1160600  )
        79           Si  tau(  79) = (  0.8549000  0.2838500  0.1398500  )
        80           Si  tau(  80) = (  0.0012600  0.4557300  0.1325100  )
        81           Si  tau(  81) = (  0.7430499  0.9993400  0.1327500  )
        82           Si  tau(  82) = (  0.5741099  0.8607100  0.1395200  )
        83           Si  tau(  83) = (  0.7661600  0.3830800  0.1601800  )
        84           Si  tau(  84) = (  0.5277600  0.7638800  0.1694100  )
        85           Si  tau(  85) = (  0.9056600  0.2325900  0.1619700  )
        86           Si  tau(  86) = (  0.3839800  0.6160200  0.1641100  )
        87           Si  tau(  87) = (  0.7636500  0.2363500  0.1868100  )
        88           Si  tau(  88) = (  0.5164500  0.9038500  0.1651800  )
        89           Si  tau(  89) = (  0.9044900  0.3864100  0.1614200  )
        90           Si  tau(  90) = (  0.9017900  0.0982100  0.1625600  )
        91           Si  tau(  91) = (  0.6743100  0.9056600  0.1660600  )
        92           Si  tau(  92) = (  0.8026300  0.9013100  0.1659000  )
        93           Si  tau(  93) = (  0.8563200  0.4281600  0.2138100  )
        94           Si  tau(  94) = (  0.7144000  0.8572000  0.2221200  )
        95           Si  tau(  95) = (  0.8570000  0.1430000  0.2151600  )
        96           Si  tau(  96) = (  0.4282300  0.8564700  0.2215900  )
        97           Si  tau(  97) = (  0.2364900  0.0455300  0.0000000  )
        98           Si  tau(  98) = (  0.2415100  0.6207600  0.0021100  )
        99           Si  tau(  99) = (  0.0942100  0.4733300  0.0019500  )
       100           Si  tau( 100) = (  0.0939100  0.3349200  0.0020900  )
       101           Si  tau( 101) = (  0.0939900  0.1879900  0.0030200  )
       102           Si  tau( 102) = (  0.3847900  0.1924000  0.0034400  )
       103           Si  tau( 103) = (  0.5215800  0.1923200  0.0036800  )
       104           Si  tau( 104) = (  0.5228405  0.0456970  0.0018937  )
       105           Si  tau( 105) = (  0.0913000  0.0456500  0.0085300  )
       106           Si  tau( 106) = (  0.3796800  0.0460500  0.0105400  )
       107           Si  tau( 107) = (  0.2378500  0.4757000  0.0103900  )
       108           Si  tau( 108) = (  0.5717600  0.1435200  0.0209200  )
       109           Si  tau( 109) = (  0.1430900  0.2861800  0.0223900  )
       110           Si  tau( 110) = (  0.1432300  0.5716099  0.0209900  )
       111           Si  tau( 111) = (  0.2858700  0.5717300  0.0409300  )
       112           Si  tau( 112) = (  0.2861100  0.1430500  0.0215300  )
       113           Si  tau( 113) = (  0.1435400  0.1428200  0.0379300  )
       114           Si  tau( 114) = (  0.4304700  0.9995200  0.0388700  )
       115           Si  tau( 115) = (  0.2823700  0.9994700  0.0394000  )
       116           Si  tau( 116) = (  0.7144400  0.2855600  0.0425000  )
       117           Si  tau( 117) = (  0.4279000  0.1419100  0.0420700  )
       118           Si  tau( 118) = (  0.2862500  0.4277600  0.0414300  )
       119           Si  tau( 119) = (  0.2841500  0.5683000  0.1396400  )
       120           Si  tau( 120) = (  0.7183700  0.2816300  0.1403300  )
       121           Si  tau( 121) = (  0.1432200  0.2864300  0.1172900  )
       122           Si  tau( 122) = (  0.5718700  0.1437300  0.1141200  )
       123           Si  tau( 123) = (  0.2862400  0.1431200  0.1150400  )
       124           Si  tau( 124) = (  0.1653500  0.1660500  0.1321600  )
       125           Si  tau( 125) = (  0.1438000  0.5719000  0.1160600  )
       126           Si  tau( 126) = (  0.4289500  0.1451000  0.1398500  )
       127           Si  tau( 127) = (  0.4544700  0.9987400  0.1325100  )
       128           Si  tau( 128) = (  0.2562900  0.2569500  0.1327500  )
       129           Si  tau( 129) = (  0.2866000  0.4258900  0.1395200  )
       130           Si  tau( 130) = (  0.6169200  0.2338400  0.1601800  )
       131           Si  tau( 131) = (  0.2361200  0.4722400  0.1694100  )
       132           Si  tau( 132) = (  0.3269300  0.0943400  0.1619700  )
       133           Si  tau( 133) = (  0.2320500  0.6160200  0.1641100  )
       134           Si  tau( 134) = (  0.4727000  0.2363500  0.1868100  )
       135           Si  tau( 135) = (  0.3874000  0.4835500  0.1651800  )
       136           Si  tau( 136) = (  0.4819200  0.0955100  0.1614200  )
       137           Si  tau( 137) = (  0.1964200  0.0982100  0.1625600  )
       138           Si  tau( 138) = (  0.2313500  0.3256900  0.1660600  )
       139           Si  tau( 139) = (  0.0986900  0.1973700  0.1659000  )
       140           Si  tau( 140) = (  0.5718400  0.1436800  0.2138100  )
       141           Si  tau( 141) = (  0.1428000  0.2856000  0.2221200  )
       142           Si  tau( 142) = (  0.2860100  0.1430000  0.2151600  )
       143           Si  tau( 143) = (  0.4282300  0.5717700  0.2215900  )
       144           Si  tau( 144) = (  0.9544700  0.7635100  0.0000000  )
       145           Si  tau( 145) = (  0.5266699  0.9057899  0.0019500  )
       146           Si  tau( 146) = (  0.6650800  0.9060900  0.0020900  )
       147           Si  tau( 147) = (  0.8076800  0.4784200  0.0036800  )
       148           Si  tau( 148) = (  0.9539500  0.6203200  0.0105400  )
       149           Si  tau( 149) = (  0.8571800  0.8564600  0.0379300  )
       150           Si  tau( 150) = (  0.0004800  0.5695300  0.0388700  )
       151           Si  tau( 151) = (  0.0005300  0.7176300  0.0394000  )
       152           Si  tau( 152) = (  0.8580900  0.5721000  0.0420700  )
       153           Si  tau( 153) = (  0.5722400  0.7137500  0.0414300  )
       154           Si  tau( 154) = (  0.8339500  0.8346500  0.1321600  )
       155           Si  tau( 155) = (  0.8549000  0.5710500  0.1398500  )
       156           Si  tau( 156) = (  0.0012600  0.5455300  0.1325100  )
       157           Si  tau( 157) = (  0.7430500  0.7437100  0.1327500  )
       158           Si  tau( 158) = (  0.5741099  0.7134000  0.1395200  )
       159           Si  tau( 159) = (  0.9056600  0.6730700  0.1619700  )
       160           Si  tau( 160) = (  0.5164500  0.6126000  0.1651800  )
       161           Si  tau( 161) = (  0.9044900  0.5180800  0.1614200  )
       162           Si  tau( 162) = (  0.6743100  0.7686500  0.1660600  )
       163           Si  tau( 163) = (  0.2364900  0.1909600  0.0000000  )
       164           Si  tau( 164) = (  0.0942100  0.6208800  0.0019500  )
       165           Si  tau( 165) = (  0.0939100  0.7589900  0.0020900  )
       166           Si  tau( 166) = (  0.5215800  0.3292600  0.0036800  )
       167           Si  tau( 167) = (  0.3796800  0.3336300  0.0105400  )
       168           Si  tau( 168) = (  0.1435400  0.0007200  0.0379300  )
       169           Si  tau( 169) = (  0.4304700  0.4309500  0.0388700  )
       170           Si  tau( 170) = (  0.2823700  0.2829000  0.0394000  )
       171           Si  tau( 171) = (  0.4279000  0.2859900  0.0420700  )
       172           Si  tau( 172) = (  0.2862500  0.8584899  0.0414300  )
       173           Si  tau( 173) = (  0.1653500  0.9993000  0.1321600  )
       174           Si  tau( 174) = (  0.4289500  0.2838500  0.1398500  )
       175           Si  tau( 175) = (  0.4544700  0.4557300  0.1325100  )
       176           Si  tau( 176) = (  0.2562900  0.9993400  0.1327500  )
       177           Si  tau( 177) = (  0.2866000  0.8607100  0.1395200  )
       178           Si  tau( 178) = (  0.3269300  0.2325900  0.1619700  )
       179           Si  tau( 179) = (  0.3874000  0.9038500  0.1651800  )
       180           Si  tau( 180) = (  0.4819200  0.3864100  0.1614200  )
       181           Si  tau( 181) = (  0.2313500  0.9056600  0.1660600  )
       182           Si  tau( 182) = (  0.8090400  0.0455300  0.0000000  )
       183           Si  tau( 183) = (  0.3791200  0.4733300  0.0019500  )
       184           Si  tau( 184) = (  0.2410100  0.3349200  0.0020900  )
       185           Si  tau( 185) = (  0.6707400  0.1923200  0.0036800  )
       186           Si  tau( 186) = (  0.6663700  0.0460500  0.0105400  )
       187           Si  tau( 187) = (  0.9992800  0.1428200  0.0379300  )
       188           Si  tau( 188) = (  0.5690500  0.9995200  0.0388700  )
       189           Si  tau( 189) = (  0.7171001  0.9994700  0.0394000  )
       190           Si  tau( 190) = (  0.7140100  0.1419100  0.0420700  )
       191           Si  tau( 191) = (  0.1415100  0.4277600  0.0414300  )
       192           Si  tau( 192) = (  0.0007000  0.1660500  0.1321600  )
       193           Si  tau( 193) = (  0.7161500  0.1451000  0.1398500  )
       194           Si  tau( 194) = (  0.5442700  0.9987400  0.1325100  )
       195           Si  tau( 195) = (  0.0006600  0.2569500  0.1327500  )
       196           Si  tau( 196) = (  0.1392900  0.4258900  0.1395200  )
       197           Si  tau( 197) = (  0.7674100  0.0943400  0.1619700  )
       198           Si  tau( 198) = (  0.0961500  0.4835500  0.1651800  )
       199           Si  tau( 199) = (  0.6135900  0.0955100  0.1614200  )
       200           Si  tau( 200) = (  0.0943400  0.3256900  0.1660600  )
       201           Br  tau( 201) = (  0.1398265  0.8566906  0.3139221  )
       202           Br  tau( 202) = (  0.4298748  0.8594727  0.3133637  )
       203           Br  tau( 203) = (  0.1401074  0.5670203  0.3135212  )
       204           Br  tau( 204) = (  0.4277787  0.5696312  0.3132148  )
       205           Br  tau( 205) = (  0.5734261  0.4283509  0.3064293  )
       206           Br  tau( 206) = (  0.0000000  0.0000000  0.1458800  )
       207           Br  tau( 207) = (  0.2793284  0.1425977  0.3072437  )
       208           C   tau( 208) = (  0.8354209  0.4762115  0.3332130  )
       209           C   tau( 209) = (  0.8050848  0.4149615  0.3332437  )
       210           C   tau( 210) = (  0.8030203  0.5062264  0.3319828  )
       211           C   tau( 211) = (  0.7426923  0.3842295  0.3315702  )
       212           C   tau( 212) = (  0.8972776  0.5073665  0.3338469  )
       213           C   tau( 213) = (  0.8364290  0.3843731  0.3342131  )
       214           C   tau( 214) = (  0.7415708  0.4741428  0.3302572  )
       215           C   tau( 215) = (  0.7126289  0.4155912  0.3300972  )
       216           C   tau( 216) = (  0.9267197  0.4759239  0.3347653  )
       217           C   tau( 217) = (  0.8973769  0.4166790  0.3350616  )
       218           C   tau( 218) = (  0.8357793  0.5656747  0.3321865  )
       219           C   tau( 219) = (  0.7166119  0.3247975  0.3311224  )
       220           C   tau( 220) = (  0.9289888  0.5690213  0.3332805  )
       221           C   tau( 221) = (  0.8070894  0.3227481  0.3332300  )
       222           C   tau( 222) = (  0.8974561  0.5960750  0.3327992  )
       223           C   tau( 223) = (  0.7484491  0.2949470  0.3317380  )
       224           C   tau( 224) = (  0.5735754  0.1795149  0.3329955  )
       225           C   tau( 225) = (  0.5123117  0.1474207  0.3328065  )
       226           C   tau( 226) = (  0.6022542  0.2417166  0.3317627  )
       227           C   tau( 227) = (  0.4799896  0.1765597  0.3312871  )
       228           C   tau( 228) = (  0.6054339  0.1494395  0.3335011  )
       229           C   tau( 229) = (  0.4825471  0.0858962  0.3328182  )
       230           C   tau( 230) = (  0.5686355  0.2694623  0.3305481  )
       231           C   tau( 231) = (  0.5100003  0.2381679  0.3302112  )
       232           C   tau( 232) = (  0.5742255  0.0880311  0.3338577  )
       233           C   tau( 233) = (  0.5153170  0.0573866  0.3334396  )
       234           C   tau( 234) = (  0.6619873  0.2693517  0.3311435  )
       235           C   tau( 235) = (  0.4198030  0.1442455  0.3300397  )
       236           C   tau( 236) = (  0.6668056  0.1801732  0.3327061  )
       237           C   tau( 237) = (  0.4219772  0.0552867  0.3313760  )
       238           C   tau( 238) = (  0.6931186  0.2389470  0.3316114  )
       239           C   tau( 239) = (  0.3911153  0.0842131  0.3300197  )
       240           C   tau( 240) = (  0.8386636  0.0379481  0.3332355  )
       241           C   tau( 241) = (  0.8081341  0.9768400  0.3328975  )
       242           C   tau( 242) = (  0.8076849  0.0687564  0.3339356  )
       243           C   tau( 243) = (  0.7463684  0.9461665  0.3334674  )
       244           C   tau( 244) = (  0.9010868  0.0683202  0.3331678  )
       245           C   tau( 245) = (  0.8402556  0.9464685  0.3324117  )
       246           C   tau( 246) = (  0.7468789  0.0370778  0.3333260  )
       247           C   tau( 247) = (  0.7172255  0.9778222  0.3331397  )
       248           C   tau( 248) = (  0.9308205  0.0367046  0.3311531  )
       249           C   tau( 249) = (  0.9015974  0.9781662  0.3307893  )
       250           C   tau( 250) = (  0.8376840  0.1305786  0.3340837  )
       251           C   tau( 251) = (  0.7144898  0.8843749  0.3336505  )
       252           C   tau( 252) = (  0.9277460  0.1277006  0.3350353  )
       253           C   tau( 253) = (  0.8075909  0.8870322  0.3336689  )
       254           C   tau( 254) = (  0.8966598  0.1581814  0.3352693  )
       255           C   tau( 255) = (  0.7459891  0.8567484  0.3342763  )
       256           C   tau( 256) = (  0.8066846  0.7421592  0.3344994  )
       257           C   tau( 257) = (  0.8363051  0.7104713  0.3349300  )
       258           C   tau( 258) = (  0.7448230  0.7119542  0.3331408  )
       259           C   tau( 259) = (  0.8034448  0.6481049  0.3337584  )
       260           C   tau( 260) = (  0.8396258  0.8044148  0.3342319  )
       261           C   tau( 261) = (  0.8983956  0.7407624  0.3353784  )
       262           C   tau( 262) = (  0.7143949  0.6506646  0.3315802  )
       263           C   tau( 263) = (  0.7423347  0.6198026  0.3318852  )
       264           C   tau( 264) = (  0.9007652  0.8327366  0.3341283  )
       265           C   tau( 265) = (  0.9288349  0.8020044  0.3349156  )
       266           C   tau( 266) = (  0.7137415  0.7421312  0.3330975  )
       267           C   tau( 267) = (  0.8360335  0.6208690  0.3330164  )
       268           C   tau( 268) = (  0.8071623  0.8317962  0.3340751  )
       269           C   tau( 269) = (  0.9294594  0.7105252  0.3348345  )
       270           C   tau( 270) = (  0.7458294  0.8009878  0.3341917  )
       271           C   tau( 271) = (  0.8974473  0.6517230  0.3336148  )
       272           C   tau( 272) = (  0.1332335  0.3024819  0.3377931  )
       273           C   tau( 273) = (  0.0719591  0.2715694  0.3369934  )
       274           C   tau( 274) = (  0.1641792  0.3640452  0.3349103  )
       275           C   tau( 275) = (  0.0412844  0.3025510  0.3343086  )
       276           C   tau( 276) = (  0.1646963  0.2721095  0.3394112  )
       277           C   tau( 277) = (  0.0423245  0.2093905  0.3370046  )
       278           C   tau( 278) = (  0.1324164  0.3935002  0.3320884  )
       279           C   tau( 279) = (  0.0734915  0.3638079  0.3319220  )
       280           C   tau( 280) = (  0.1335151  0.2104916  0.3396308  )
       281           C   tau( 281) = (  0.0749152  0.1805211  0.3380176  )
       282           C   tau( 282) = (  0.2247352  0.3932688  0.3331469  )
       283           C   tau( 283) = (  0.9798746  0.2727899  0.3336828  )
       284           C   tau( 284) = (  0.2249991  0.3033546  0.3379404  )
       285           C   tau( 285) = (  0.9827420  0.1826714  0.3357572  )
       286           C   tau( 286) = (  0.2545766  0.3632986  0.3346159  )
       287           C   tau( 287) = (  0.9525086  0.2139170  0.3350667  )
       288           H   tau( 288) = (  0.9736724  0.4997347  0.3347329  )
       289           H   tau( 289) = (  0.9210225  0.3933812  0.3352007  )
       290           H   tau( 290) = (  0.9758813  0.5914022  0.3336424  )
       291           H   tau( 291) = (  0.8320716  0.3008525  0.3335244  )
       292           H   tau( 292) = (  0.7177578  0.4971230  0.3288496  )
       293           H   tau( 293) = (  0.6658345  0.3921286  0.3284184  )
       294           H   tau( 294) = (  0.3953146  0.1666268  0.3287850  )
       295           H   tau( 295) = (  0.5987621  0.0656395  0.3337328  )
       296           H   tau( 296) = (  0.4924933  0.0104289  0.3330516  )
       297           H   tau( 297) = (  0.6900199  0.1564771  0.3327444  )
       298           H   tau( 298) = (  0.3996699  0.0083678  0.3312695  )
       299           H   tau( 299) = (  0.3442242  0.0601529  0.3289108  )
       300           H   tau( 300) = (  0.5903365  0.3162506  0.3294258  )
       301           H   tau( 301) = (  0.4847806  0.2598192  0.3291091  )
       302           H   tau( 302) = (  0.8130737  0.1528720  0.3342619  )
       303           H   tau( 303) = (  0.6676039  0.8620005  0.3349147  )
       304           H   tau( 304) = (  0.9776012  0.0602700  0.3298221  )
       305           H   tau( 305) = (  0.9248661  0.9546488  0.3292499  )
       306           H   tau( 306) = (  0.7235176  0.0606625  0.3330035  )
       307           H   tau( 307) = (  0.6702868  0.9542276  0.3327540  )
       308           H   tau( 308) = (  0.6668611  0.7181146  0.3321404  )
       309           H   tau( 309) = (  0.9252025  0.8795349  0.3333736  )
       310           H   tau( 310) = (  0.9757556  0.8241593  0.3345407  )
       311           H   tau( 311) = (  0.9763765  0.7346762  0.3348152  )
       312           H   tau( 312) = (  0.6675072  0.6284458  0.3300558  )
       313           H   tau( 313) = (  0.7178274  0.5730218  0.3303622  )
       314           H   tau( 314) = (  0.2480777  0.4400897  0.3301382  )
       315           H   tau( 315) = (  0.9574739  0.2972588  0.3319949  )
       316           H   tau( 316) = (  0.1579467  0.1879959  0.3397295  )
       317           H   tau( 317) = (  0.0520669  0.1337159  0.3371993  )
       318           H   tau( 318) = (  0.2484156  0.2798321  0.3383022  )
       319           H   tau( 319) = (  0.3014264  0.3868273  0.3327112  )
       320           H   tau( 320) = (  0.1559290  0.4403737  0.3296591  )
       321           H   tau( 321) = (  0.0499283  0.3871351  0.3296078  )

     number of k points=     8  Marzari-Vanderbilt smearing, width (Ry)=  0.0147
                       cart. coord. in units 2pi/alat
        k(    1) = (   0.0000000   0.0000000   0.0000000), wk =   0.2500000
        k(    2) = (   0.0000000   0.0000000  -0.5442082), wk =   0.2500000
        k(    3) = (   0.0000000  -0.5773503   0.0000000), wk =   0.2500000
        k(    4) = (   0.0000000  -0.5773503  -0.5442082), wk =   0.2500000
        k(    5) = (   0.5000000  -0.2886751   0.0000000), wk =   0.2500000
        k(    6) = (  -0.5000000  -0.2886751   0.0000000), wk =   0.2500000
        k(    7) = (   0.5000000  -0.2886751  -0.5442082), wk =   0.2500000
        k(    8) = (  -0.5000000  -0.2886751  -0.5442082), wk =   0.2500000

                       cryst. coord.
        k(    1) = (   0.0000000   0.0000000   0.0000000), wk =   0.2500000
        k(    2) = (   0.0000000   0.0000000  -0.5000000), wk =   0.2500000
        k(    3) = (   0.0000000  -0.5000000   0.0000000), wk =   0.2500000
        k(    4) = (   0.0000000  -0.5000000  -0.5000000), wk =   0.2500000
        k(    5) = (   0.5000000  -0.5000000   0.0000000), wk =   0.2500000
        k(    6) = (  -0.5000000   0.0000000   0.0000000), wk =   0.2500000
        k(    7) = (   0.5000000  -0.5000000  -0.5000000), wk =   0.2500000
        k(    8) = (  -0.5000000   0.0000000  -0.5000000), wk =   0.2500000

     Dense  grid: 18523159 G-vectors     FFT dimensions: ( 360, 360, 360)

     Smooth grid:  6548247 G-vectors     FFT dimensions: ( 256, 256, 240)

     Dynamical RAM for                 wfc:     204.96 MB

     Dynamical RAM for     wfc (w. buffer):    1844.62 MB

     Dynamical RAM for           str. fact:      25.69 MB

     Dynamical RAM for           local pot:       0.00 MB

     Dynamical RAM for          nlocal pot:    1258.70 MB

     Dynamical RAM for                qrad:       7.03 MB

     Dynamical RAM for          rho,v,vnew:      45.97 MB

     Dynamical RAM for               rhoin:      15.32 MB

     Dynamical RAM for            rho*nmix:     102.78 MB

     Dynamical RAM for           G-vectors:      25.22 MB

     Dynamical RAM for          h,s,v(r/c):       2.64 MB

     Dynamical RAM for          <psi|beta>:      48.85 MB

     Dynamical RAM for                 psi:     409.91 MB

     Dynamical RAM for                hpsi:     409.91 MB

     Dynamical RAM for                spsi:     409.91 MB

     Dynamical RAM for      wfcinit/wfcrot:     703.07 MB

     Dynamical RAM for           addusdens:    2479.53 MB

     Dynamical RAM for          addusforce:    7372.39 MB

     Dynamical RAM for         addusstress:    1291.15 MB

     Estimated static dynamical RAM per process >       3.32 GB

     Estimated max dynamical RAM per process >      10.52 GB

     Estimated total dynamical RAM >     462.96 GB

     Initial potential from superposition of free atoms

     starting charge 1202.88437, renormalised to 1203.00000

     negative rho (up, down):  3.086E-03 0.000E+00
     Starting wfcs are 1182 randomized atomic wfcs

===================================================================================
=   BAD TERMINATION OF ONE OF YOUR APPLICATION PROCESSES
=   RANK 0 PID 64543 RUNNING AT X10DAi-01
=   KILLED BY SIGNAL: 9 (Killed)
===================================================================================

===================================================================================
=   BAD TERMINATION OF ONE OF YOUR APPLICATION PROCESSES
=   RANK 1 PID 64544 RUNNING AT X10DAi-01
=   KILLED BY SIGNAL: 9 (Killed)
===================================================================================

===================================================================================
=   BAD TERMINATION OF ONE OF YOUR APPLICATION PROCESSES
=   RANK 2 PID 64545 RUNNING AT X10DAi-01
=   KILLED BY SIGNAL: 9 (Killed)
===================================================================================

===================================================================================
=   BAD TERMINATION OF ONE OF YOUR APPLICATION PROCESSES
=   RANK 3 PID 64546 RUNNING AT X10DAi-01
=   KILLED BY SIGNAL: 9 (Killed)
===================================================================================

===================================================================================
=   BAD TERMINATION OF ONE OF YOUR APPLICATION PROCESSES
=   RANK 4 PID 64547 RUNNING AT X10DAi-01
=   KILLED BY SIGNAL: 9 (Killed)
===================================================================================

===================================================================================
=   BAD TERMINATION OF ONE OF YOUR APPLICATION PROCESSES
=   RANK 5 PID 64548 RUNNING AT X10DAi-01
=   KILLED BY SIGNAL: 9 (Killed)
===================================================================================

===================================================================================
=   BAD TERMINATION OF ONE OF YOUR APPLICATION PROCESSES
=   RANK 6 PID 64549 RUNNING AT X10DAi-01
=   KILLED BY SIGNAL: 9 (Killed)
===================================================================================

===================================================================================
=   BAD TERMINATION OF ONE OF YOUR APPLICATION PROCESSES
=   RANK 7 PID 64550 RUNNING AT X10DAi-01
=   KILLED BY SIGNAL: 9 (Killed)
===================================================================================

===================================================================================
=   BAD TERMINATION OF ONE OF YOUR APPLICATION PROCESSES
=   RANK 8 PID 64551 RUNNING AT X10DAi-01
=   KILLED BY SIGNAL: 9 (Killed)
===================================================================================

===================================================================================
=   BAD TERMINATION OF ONE OF YOUR APPLICATION PROCESSES
=   RANK 9 PID 64552 RUNNING AT X10DAi-01
=   KILLED BY SIGNAL: 9 (Killed)
===================================================================================

===================================================================================
=   BAD TERMINATION OF ONE OF YOUR APPLICATION PROCESSES
=   RANK 10 PID 64553 RUNNING AT X10DAi-01
=   KILLED BY SIGNAL: 9 (Killed)
===================================================================================

===================================================================================
=   BAD TERMINATION OF ONE OF YOUR APPLICATION PROCESSES
=   RANK 11 PID 64554 RUNNING AT X10DAi-01
=   KILLED BY SIGNAL: 9 (Killed)
===================================================================================

===================================================================================
=   BAD TERMINATION OF ONE OF YOUR APPLICATION PROCESSES
=   RANK 12 PID 64555 RUNNING AT X10DAi-01
=   KILLED BY SIGNAL: 9 (Killed)
===================================================================================

===================================================================================
=   BAD TERMINATION OF ONE OF YOUR APPLICATION PROCESSES
=   RANK 13 PID 64556 RUNNING AT X10DAi-01
=   KILLED BY SIGNAL: 9 (Killed)
===================================================================================

===================================================================================
=   BAD TERMINATION OF ONE OF YOUR APPLICATION PROCESSES
=   RANK 14 PID 64557 RUNNING AT X10DAi-01
=   KILLED BY SIGNAL: 9 (Killed)
===================================================================================

===================================================================================
=   BAD TERMINATION OF ONE OF YOUR APPLICATION PROCESSES
=   RANK 15 PID 64558 RUNNING AT X10DAi-01
=   KILLED BY SIGNAL: 9 (Killed)
===================================================================================

===================================================================================
=   BAD TERMINATION OF ONE OF YOUR APPLICATION PROCESSES
=   RANK 16 PID 64559 RUNNING AT X10DAi-01
=   KILLED BY SIGNAL: 9 (Killed)
===================================================================================

===================================================================================
=   BAD TERMINATION OF ONE OF YOUR APPLICATION PROCESSES
=   RANK 17 PID 64560 RUNNING AT X10DAi-01
=   KILLED BY SIGNAL: 9 (Killed)
===================================================================================

===================================================================================
=   BAD TERMINATION OF ONE OF YOUR APPLICATION PROCESSES
=   RANK 18 PID 64561 RUNNING AT X10DAi-01
=   KILLED BY SIGNAL: 9 (Killed)
===================================================================================

===================================================================================
=   BAD TERMINATION OF ONE OF YOUR APPLICATION PROCESSES
=   RANK 19 PID 64562 RUNNING AT X10DAi-01
=   KILLED BY SIGNAL: 9 (Killed)
===================================================================================

===================================================================================
=   BAD TERMINATION OF ONE OF YOUR APPLICATION PROCESSES
=   RANK 20 PID 64563 RUNNING AT X10DAi-01
=   KILLED BY SIGNAL: 9 (Killed)
===================================================================================

===================================================================================
=   BAD TERMINATION OF ONE OF YOUR APPLICATION PROCESSES
=   RANK 21 PID 64564 RUNNING AT X10DAi-01
=   KILLED BY SIGNAL: 9 (Killed)
===================================================================================

===================================================================================
=   BAD TERMINATION OF ONE OF YOUR APPLICATION PROCESSES
=   RANK 22 PID 64565 RUNNING AT X10DAi-01
=   KILLED BY SIGNAL: 9 (Killed)
===================================================================================

===================================================================================
=   BAD TERMINATION OF ONE OF YOUR APPLICATION PROCESSES
=   RANK 23 PID 64566 RUNNING AT X10DAi-01
=   KILLED BY SIGNAL: 9 (Killed)
===================================================================================

===================================================================================
=   BAD TERMINATION OF ONE OF YOUR APPLICATION PROCESSES
=   RANK 24 PID 64567 RUNNING AT X10DAi-01
=   KILLED BY SIGNAL: 9 (Killed)
===================================================================================

===================================================================================
=   BAD TERMINATION OF ONE OF YOUR APPLICATION PROCESSES
=   RANK 25 PID 64568 RUNNING AT X10DAi-01
=   KILLED BY SIGNAL: 9 (Killed)
===================================================================================

===================================================================================
=   BAD TERMINATION OF ONE OF YOUR APPLICATION PROCESSES
=   RANK 26 PID 64569 RUNNING AT X10DAi-01
=   KILLED BY SIGNAL: 9 (Killed)
===================================================================================

===================================================================================
=   BAD TERMINATION OF ONE OF YOUR APPLICATION PROCESSES
=   RANK 27 PID 64570 RUNNING AT X10DAi-01
=   KILLED BY SIGNAL: 9 (Killed)
===================================================================================

===================================================================================
=   BAD TERMINATION OF ONE OF YOUR APPLICATION PROCESSES
=   RANK 28 PID 64571 RUNNING AT X10DAi-01
=   KILLED BY SIGNAL: 9 (Killed)
===================================================================================

===================================================================================
=   BAD TERMINATION OF ONE OF YOUR APPLICATION PROCESSES
=   RANK 29 PID 64572 RUNNING AT X10DAi-01
=   KILLED BY SIGNAL: 9 (Killed)
===================================================================================

===================================================================================
=   BAD TERMINATION OF ONE OF YOUR APPLICATION PROCESSES
=   RANK 30 PID 64573 RUNNING AT X10DAi-01
=   KILLED BY SIGNAL: 9 (Killed)
===================================================================================

===================================================================================
=   BAD TERMINATION OF ONE OF YOUR APPLICATION PROCESSES
=   RANK 31 PID 64574 RUNNING AT X10DAi-01
=   KILLED BY SIGNAL: 9 (Killed)
===================================================================================

===================================================================================
=   BAD TERMINATION OF ONE OF YOUR APPLICATION PROCESSES
=   RANK 32 PID 64575 RUNNING AT X10DAi-01
=   KILLED BY SIGNAL: 9 (Killed)
===================================================================================

===================================================================================
=   BAD TERMINATION OF ONE OF YOUR APPLICATION PROCESSES
=   RANK 33 PID 64576 RUNNING AT X10DAi-01
=   KILLED BY SIGNAL: 9 (Killed)
===================================================================================

===================================================================================
=   BAD TERMINATION OF ONE OF YOUR APPLICATION PROCESSES
=   RANK 34 PID 64577 RUNNING AT X10DAi-01
=   KILLED BY SIGNAL: 9 (Killed)
===================================================================================

===================================================================================
=   BAD TERMINATION OF ONE OF YOUR APPLICATION PROCESSES
=   RANK 35 PID 64578 RUNNING AT X10DAi-01
=   KILLED BY SIGNAL: 9 (Killed)
===================================================================================

===================================================================================
=   BAD TERMINATION OF ONE OF YOUR APPLICATION PROCESSES
=   RANK 36 PID 64579 RUNNING AT X10DAi-01
=   KILLED BY SIGNAL: 9 (Killed)
===================================================================================

===================================================================================
=   BAD TERMINATION OF ONE OF YOUR APPLICATION PROCESSES
=   RANK 37 PID 64580 RUNNING AT X10DAi-01
=   KILLED BY SIGNAL: 9 (Killed)
===================================================================================

===================================================================================
=   BAD TERMINATION OF ONE OF YOUR APPLICATION PROCESSES
=   RANK 38 PID 64581 RUNNING AT X10DAi-01
=   KILLED BY SIGNAL: 9 (Killed)
===================================================================================

===================================================================================
=   BAD TERMINATION OF ONE OF YOUR APPLICATION PROCESSES
=   RANK 39 PID 64582 RUNNING AT X10DAi-01
=   KILLED BY SIGNAL: 9 (Killed)
===================================================================================

===================================================================================
=   BAD TERMINATION OF ONE OF YOUR APPLICATION PROCESSES
=   RANK 40 PID 64583 RUNNING AT X10DAi-01
=   KILLED BY SIGNAL: 9 (Killed)
===================================================================================

===================================================================================
=   BAD TERMINATION OF ONE OF YOUR APPLICATION PROCESSES
=   RANK 41 PID 64584 RUNNING AT X10DAi-01
=   KILLED BY SIGNAL: 9 (Killed)
===================================================================================

===================================================================================
=   BAD TERMINATION OF ONE OF YOUR APPLICATION PROCESSES
=   RANK 42 PID 64585 RUNNING AT X10DAi-01
=   KILLED BY SIGNAL: 9 (Killed)
===================================================================================

===================================================================================
=   BAD TERMINATION OF ONE OF YOUR APPLICATION PROCESSES
=   RANK 43 PID 64586 RUNNING AT X10DAi-01
=   KILLED BY SIGNAL: 9 (Killed)
===================================================================================
